11
Properties=species:S:1:pos:R:3:forces:R:3:charge:R:1 energy=-3243.945619661551 pbc="F F F"
C        1.06106438       0.00326913       0.04662115       0.00003176       0.00021888       0.00017041      -0.22376364
C        2.58427467       0.03440364       0.07148043       0.00040484       0.00016172      -0.00169319      -0.11889488
C        3.12928549       1.14740018       0.95802398       0.00739163       0.00312204      -0.02691971      -0.22378954
H        0.68858434      -0.79689266      -0.59078185       0.00024914      -0.00000574       0.00002407       0.06707098
H        0.65940042       0.94484335      -0.32835734      -0.00025659       0.00010598      -0.00004113       0.07020783
H        0.65931805      -0.15164707       1.04817340      -0.00016675       0.00001344       0.00023665       0.07020934
H        2.96261728       0.15917626      -0.94372268       0.00025176      -0.00099577      -0.00001424       0.07569034
H        2.96258356      -0.92719486       0.42013624       0.00022829      -0.00000098      -0.00065150       0.07569476
H        2.78890833       2.12291500       0.61014552       0.00030117       0.00049972      -0.00082822       0.07018444
H        4.21794267       1.15559682       0.96442931      -0.00004403      -0.00024637      -0.00006983       0.06704274
H        2.78906080       1.02642020       1.98667188      -0.00839130      -0.00287292       0.02978677       0.07034750
