3
Properties=species:S:1:pos:R:3:forces:R:3:charge:R:1 energy=-5135.27604355282 pbc="F F F"
O        1.11088027      -0.06764000      -0.07363000      -0.00049970       0.00000000       0.00376161      -0.29385653
C        2.26906731      -0.06764000      -0.07363000       0.00078180       0.00000000      -0.00752344       0.58772004
O        3.42726242      -0.06764000      -0.07363000      -0.00028218       0.00000000       0.00376183      -0.29386345
