3
Properties=species:S:1:pos:R:3:forces:R:3:charge:R:1 energy=-5135.27604355282 pbc="F F F"
O          1.11088       -0.06764       -0.07363
C          2.26907       -0.06764       -0.07363
O          3.42726       -0.06764       -0.07363
